<?xml version="1.0"?>
<VTKFile type="UnstructuredGrid" version="1.0" byte_order="LittleEndian" header_type="UInt64">
  <UnstructuredGrid>
    <FieldData>
      <DataArray type="Int8" Name="OGS_VERSION" NumberOfTuples="25" format="ascii" RangeMin="45" RangeMax="121">
        54 46 53 46 53 45
        49 57 55 45 103 98
        100 100 55 100 97 101
        49 46 100 105 114 116
        121
      </DataArray>
    </FieldData>
    <Piece NumberOfPoints="1629" NumberOfCells="534">
      <PointData>
        <DataArray type="Float64" Name="displacement" NumberOfComponents="2" format="ascii" RangeMin="0.004408754976403879" RangeMax="0.023330675327048928">
          0 -0.015303282016855735 0.0024736751373834595 -0.004039538180935171 0.00148894387379499 -0.005214392133898319
          0.0006102555648266786 -0.0065047781001013275 -0.00012483035333264213 -0.007870836209419403 -0.000689077132170253 -0.009263133732537591
          -0.0010659995065244762 -0.01062837590786746 -0.0012525593946490902 -0.011908884959088232 -0.001256583582160193 -0.013050209773736391
          -0.0010993336056815775 -0.013998674735614138 -0.0008104174114898284 -0.014711744984500298 -0.00042937829709556306 -0.015153678606909445
          0 -0.022791309186408287 0 -0.022282436911777604 0 -0.021801837500426618
          0 -0.021347486948364938 0 -0.020917538744927938 0 -0.020510306272571388
          0 -0.020124246987183226 0 -0.01975794823479318 0 -0.019410114555284717
          0 -0.019079556326832108 0 -0.018765179612672437 0 -0.01846597708214817
          0 -0.01818101988928093 0 -0.017909450403538148 0 -0.017650475698343753
          0 -0.017403361712711812 0 -0.017167428009468452 0 -0.016942043058506346
          0 -0.01672661997270363 0 -0.016520612612198952 0 -0.016323511940061833
          0 -0.016134842444716073 0 -0.015954158334636193 0 -0.01578103911707228
          0 -0.015615084911158948 0 -0.015455914090763653 0 -0.015057087666939695
          0 -0.014802574282287064 0 -0.014541044759705758 0 -0.01427415686157156
          0 -0.014003857793280587 0 -0.013732946445897313 0 -0.013463238472413586
          0.00852039561058728 0 0.008587772808486285 0 0.008658351172770258 0
          0.008732309712962015 0 0.008809836489230003 0 0.008891130555580736 0
          0.00897640344366261 0 0.009065880401171107 0 0.009159801543474897 0
          0.009258423008065163 0 0.009362018155865225 0 0.009470878838284576 0
          0.009585316735205608 0 0.009705664760625272 0 0.009832278525739474 0
          0.009965537841647014 0 0.010105848234047672 0 0.010253642428945305 0
          0.010409381749886756 0 0.010247202940243763 -0.00016161735217207147 0.010094363066848659 -0.0001582466937093693
          0.009949341701545265 -0.00015533358853609273 0.00981168148576922 -0.00015280321061581292 0.009680953663776309 -0.00015059087872910983
          0.009556756626292684 -0.00014864045887810095 0.009438714381135251 -0.00014690304550767427 0.009326475006072654 -0.00014533586804166423
          0.009219709121474408 -0.00014390138042395738 0.009118108407498384 -0.00014256650007584733 0.009021384181386018 -0.0001413019695791617
          0.008929266044076529 -0.00014008182001600807 0.008841500601585495 -0.00013888291977083567 0.00875785026598241 -0.00013768459732489655
          0.008678092145230847 -0.0001364683317476269 0.008602017044521302 -0.0001352175100313796 0.008529428630194506 -0.00013391725113410022
          0.008460142856589834 -0.0001325542581226576 0.008393987797499626 -0.00013111645983492946 0.009769550345832852 -0.00038428454711484516
          0.009625247843115123 -0.0003763848084522515 0.009488391372697802 -0.0003694429034999634 0.009358535343362819 -0.0003633082867179074
          0.00923526278445667 -0.0003578505749687424 0.009118183720190206 -0.00035295639361053905 0.00900693351842345 -0.0003485267701434815
          0.008901171258296292 -0.0003444749703686522 0.008800578146318487 -0.0003407246938081688 0.008704856000240338 -0.00033720856199888946
          0.008613725813096785 -0.0003338668463304961 0.008526926405533085 -0.0003306463921324282 0.00844421317243355 -0.00032749970319897954
          0.008365356929623603 -0.000324384156127117 0.008290142867625633 -0.0003212613169189241 0.008218369621150466 -0.0003180963344995941
          0.00814984846268814 -0.00031485739430547763 0.008084402617416622 -0.0003115152536588834 0.008021866633651686 -0.00030804315033141727
          0.00900253343366162 -0.0007248520673941916 0.00887193218269033 -0.0007101891389671605 0.00874818017237655 -0.0006970669026206894
          0.00863085096795608 -0.0006852574177199028 0.008519546772788987 -0.000674562679762838 0.008413896534779232 -0.0006648099937991586
          0.008313554102264083 -0.0006558481459998087 0.00821819645539327 -0.0006475442212192758 0.008127522028081448 -0.0006397809459634535
          0.008041249127689052 -0.0006324544607042998 0.007959114453509775 -0.0006254724446479082 0.00788087170988913 -0.0006187525310813858
          0.007806290304252815 -0.000612220963122956 0.0077351541130839824 -0.0006058114484055351 0.007667260287842811 -0.0005994641764422866
          0.007602418054821375 -0.0005931249616189078 0.007540447433756991 -0.0005867444617851599 0.007481177757371225 -0.000580277375015267
          0.007424445867046121 -0.0005736815603169731 0.00798789603465234 -0.0012320285361244246 0.007875399242722944 -0.0012074525135620223
          0.0077689646942901095 -0.0011851168113985841 0.007668191793510868 -0.0011647138163890633 0.007572708574187183 -0.0011459752660171827
          0.007482169459511844 -0.001128666267413841 0.007396253169505321 -0.0011125803381255728 0.007314660779004561 -0.0010975352752642502
          0.007237113924157686 -0.0010833696994513287 0.007163353152515377 -0.0010699401509901433 0.007093136410513211 -0.0010571186400146427
          0.007026237662080118 -0.0010447905716944295 0.006962445632959344 -0.0010328529834784978 0.006901562676394732 -0.0010212130456058867
          0.00684340375508608 -0.0010097867914533529 0.006787795526223458 -0.0009984980656164205 0.006734575486670234 -0.0009872777145796285
          0.006683591044751921 -0.0009760630977073564 0.006634698191161349 -0.000964798211164217 0.006876999538592607 -0.0019847952109926636
          0.006780476289210985 -0.0019429372086307256 0.00668948289408261 -0.001904608910453193 0.006603618809013416 -0.0018693634264005095
          0.006522514977362462 -0.0018368108560776115 0.0064458309031140545 -0.0018066096008461559 0.006373252011566596 -0.0017784591757090476
          0.006304487271889599 -0.0017520942335553283 0.006239267056627401 -0.0017272795745047144 0.0061773412144769824 -0.0017038059596982107
          0.006118477334043109 -0.0016814865851872288 0.006062459177360948 -0.0016601541000687257 0.006009085262424911 -0.0016396580754756652
          0.0059581675730906725 -0.0016198628488209522 0.005909530371630698 -0.0016006456816221176 0.005863009082147794 -0.0015818951797626323
          0.005818449198971133 -0.0015635099320265341 0.0057757051473796 -0.0015453973272170078 0.005734638965812346 -0.0015274725019790076
          0.005695118615221644 -0.0015096575343382247 0.005657014455826286 -0.0014918785233015161 0.005516626188770459 -0.002941339596788929
          0.005444878101192539 -0.0028803832077193233 0.005377596795487015 -0.0028240524221477066 0.005314417320949438 -0.002771805821474948
          0.0052550066201042635 -0.0027231685961106307 0.005199060018628901 -0.002677722635721074 0.005146298164898006 -0.00263509830319672
          0.005096464354407496 -0.002594967573483562 0.005049322184716703 -0.0025570382845592258 0.005004653495196773 -0.002521049299091523
          0.004962256553148824 -0.0024867664152819287 0.004921944454080961 -0.0024539788967355243 0.004883543709308008 -0.0024224965160273334
          0.0048468929986785645 -0.002392147026696957 0.004811842069741499 -0.0023627739956234455 0.004778250765737557 -0.0023342349447881294
          0.004745988159718835 -0.0023063997732342524 0.004714931753042348 -0.0022791494680822586 0.004684966640232385 -0.0022523751785555276
          0.004655984517725839 -0.0022259780750938847 0.004627880862029346 -0.0021998681594975274 0.004097589898368533 -0.004135570379503078
          0.004051561468646167 -0.004051001281516455 0.004008894168678476 -0.003972318455585008 0.0039692618355746615 -0.0038988845532277228
          0.003932370430443093 -0.003830137592152484 0.0038979539549779366 -0.003765580058396538 0.0038657709797276043 -0.0037047698237308697
          0.0038356016797286363 -0.00364731253979105 0.0038072452930200873 -0.0035928552398948018 0.0037805179331680426 -0.0035410809335821194
          0.0037552506992601267 -0.0034917040212767395 0.003731288036539497 -0.0034444663899381245 0.003708486308434797 -0.0033991340772866556
          0.0036867125466490823 -0.003355494413796737 0.003665843350724141 -0.0033133535694428442 0.0036457639131283253 -0.003272534447020719
          0.0036263671525597506 -0.0032328748758745705 0.003607552952237083 -0.003194226068388596 0.003589227522198872 -0.0031564512853299257
          0.0035713030790059217 -0.0031194247925109405 0.003553696436186947 -0.0030830282638673982 0.003536353630841499 -0.0030471870190478144
          0.0027167218784619565 -0.005677458847268679 0.0026933617179803757 -0.005556862590538452 0.0026725946614434095 -0.005444400485614095
          0.0026540974549644357 -0.0053392414744660105 0.0026375844650813507 -0.00524065168103783 0.0026228021349714095 -0.005147980432368788
          0.002609524382418761 -0.0050606486105841866 0.002597548760688493 -0.00497813889867786 0.002586693240885306 -0.004899987573446061
          0.0025767935033372243 -0.004825777568991266 0.002567700648149237 -0.004755132588795817 0.002559279252875703 -0.004687712087106916
          0.0025514057195270695 -0.004623206973899717 0.0025439668647833846 -0.0045613359239598875 0.0025368587172174433 -0.004501842190954022
          0.0025299854942209456 -0.004444490842616716 0.0025232587398213904 -0.004389066343824718 0.002516596612985419 -0.004335370420505854
          0.002509923324858315 -0.00428322014072426 0.0025031687201008722 -0.0042324461388316146 0.0024962681263778165 -0.004182891094637661
          0.0024891604782840294 -0.004134405902605385 0.0024818171531435073 -0.00408688732663846 0.0013735026962617728 -0.007331295819280517
          0.00137465121202731 -0.007177434642439054 0.0013773293051646972 -0.007033362646035116 0.0013812543496476083 -0.006898145354840808
          0.001386181508773247 -0.006770952908922451 0.0013918975973059367 -0.006651045543430295 0.0013982160577779435 -0.00653776142136753
          0.001404972829004527 -0.006430506388149954 0.001412022932889688 -0.0063287453043748354 0.0014192376423912472 -0.006231994681415657
          0.0014265021218423843 -0.006139816397915314 0.0014337134527314726 -0.006051812317448916 0.0014407789750072327 -0.005967619661216042
          0.0014476148871712636 -0.005886907016598117 0.0014541450588819109 -0.005809370884279591 0.0014603000188225057 -0.005734732684343841
          0.0014660160905820823 -0.005662736155521292 0.001471234665517433 -0.005593145090137227 0.001475901637515419 -0.0055257413465294326
          0.0014799670977579762 -0.005460323045081476 0.0014833857408984587 -0.0053967029449991395 0.0014861165535986817 -0.005334704239386885
          0.0014881619946350937 -0.005274195337228233 0.00016106980786871042 -0.009346483898168945 0.0001826925152583395 -0.009143700839482636
          0.0002051860471074535 -0.00895362329514208 0.00022826246783569696 -0.008775088094238936 0.00025167929296950986 -0.008607060529633196
          0.0002752313565382619 -0.008448616733408382 0.0002987442547940287 -0.008298928886768664 0.0003220690359744465 -0.008157252746699446
          0.00034507788038587483 -0.008022917076908703 0.0003676605716495978 -0.007895314652343315 0.00038972160318843956 -0.007773894570526294
          0.00041117779728858464 -0.0076581556532885455 0.0004319563399159685 -0.007547640762178284 0.0004519931547410655 -0.0074419318822379985
          0.00047123155603842804 -0.0073406458534813895 0.0004896211333983823 -0.007243430648319767 0.0005071168324401124 -0.0071499621067131055
          0.0005236782055009965 -0.0070599410484146335 0.0005392688143016037 -0.006973090681027356 0.0005538557715337509 -0.006889154208810274
          0.0005674093885127216 -0.006807892494137313 0.000579903017991611 -0.00672908167318676 0.0005913104746896488 -0.006652508055905792
          0.0006016429116648584 -0.006577997990058919 -0.0008412341239379064 -0.011298934510937315 -0.0008016694545332996 -0.011056238855972445
          -0.0007620628764880326 -0.010828154682723464 -0.000722662874285952 -0.010613418357090778 -0.000683673386430159 -0.010410899705102146
          -0.0006452622504270066 -0.01021958447848362 -0.0006075679604684944 -0.010038559529082045 -0.0005707050981450408 -0.009867000214986293
          -0.0005347687141903367 -0.009704159655116312 -0.000499837876995971 -0.009549359522664266 -0.0004659785562693484 -0.009401982125879324
          -0.0004332459739684376 -0.009261463570844923 -0.0004016865268042736 -0.00912728783784965 -0.0003713393630957157 -0.008998981632746242
          -0.00034223768001958124 -0.008876109898918596 -0.00031440979387416403 -0.008758271895237424 -0.00028788002411537307 -0.008645097761260217
          -0.00026266941848919896 -0.00853624550255038 -0.00023879632482151002 -0.008431398334154733 -0.00021627676784371827 -0.008330262314113651
          -0.00019512449276267813 -0.008232564158708426 -0.00017535009819050806 -0.008138049187994434 -0.00015696073826727418 -0.008046477134950367
          -0.00013991365893123694 -0.007957648142400204 -0.001591974583740429 -0.013282833294204967 -0.0015396792468303855 -0.012999802449285634
          -0.001487982977110621 -0.012733279091785767 -0.001437096156356766 -0.012481906831659662 -0.0013871866641722462 -0.012244466468464933
          -0.0013383883128079855 -0.012019858782250287 -0.0012908075594058892 -0.011807089860963864 -0.0012445288684172567 -0.011605258537622475
          -0.0011996190110174505 -0.011413545590827915 -0.001156130523449444 -0.0112312044258888 -0.0011141044968973905 -0.0110575530045443
          -0.0010735728337312594 -0.01089196683190682 -0.001034560075837145 -0.010733872841854624 -0.000997084888078143 -0.010582744048264814
          -0.0009611612620740424 -0.010438094850243013 -0.0009267994912311611 -0.01029947689546746 -0.0008940069564300066 -0.010166475416836926
          -0.0008627887525620594 -0.010038705962600201 -0.0008331481795816502 -0.009915811435313488 -0.0008050871188186528 -0.009797459331308699
          -0.0007786063363526526 -0.009683338996688745 -0.000753705613496507 -0.009573158653374469 -0.0007303864849957719 -0.00946663976383561
          -0.0007086149186877285 -0.009363533242157506 -0.0020671893318528235 -0.015220752803483702 -0.0020078580402190013 -0.014898502290516378
          -0.0019495614319955752 -0.014594583164490102 -0.0018924737070578576 -0.014307555459374429 -0.0018367297939998015 -0.01403611905845447
          -0.001782433431515951 -0.013779096975348265 -0.0017296635729595945 -0.013535420970325151 -0.0016784794804924226 -0.013304119131212058
          -0.0016289247903206621 -0.013084305113785165 -0.0015810307665124104 -0.01287516878942877 -0.0015348189123732961 -0.012675968090699527
          -0.0014903030713822006 -0.012486021880363608 -0.001447491121354964 -0.012304703698117885 -0.0014063863436149452 -0.012131436262851403
          -0.0013669885316749536 -0.011965686627877566 -0.0013292948893927714 -0.011806961902526369 -0.0012933007540653605 -0.011654805465365188
          -0.001259000160488665 -0.011508793599635983 -0.0012263862273295847 -0.011368532473247067 -0.0011954512737752368 -0.011233655347877191
          -0.001166186426645656 -0.011103819792470253 -0.0011385799519178623 -0.0109787045203796 -0.0011126155126876557 -0.010858003555162317
          -0.001088226406877621 -0.010741436189002865 -0.002322617370141417 -0.01741326717628273 -0.0022609845772271495 -0.017032794954815036
          -0.002200428300731734 -0.016674014335852153 -0.0021411330623088086 -0.016335252029792538 -0.0020832391330702013 -0.01601499503349512
          -0.002026851913716266 -0.01571187199277791 -0.0019720493176114645 -0.015424637063772463 -0.0019188876039461355 -0.015152155898091938
          -0.001867406002007074 -0.014893393438270015 -0.0018176303881521872 -0.01464740326062301 -0.0017695762172324275 -0.014413318244539553
          -0.001723250864801844 -0.014190342381783176 -0.0016786555017739707 -0.013977743567932265 -0.001635786596485374 -0.013774847241485899
          -0.001594637118401919 -0.013581030755012224 -0.0015551975014605232 -0.013395718377128893 -0.001517456412235347 -0.013218376833551149
          -0.0014814013581252506 -0.01304851129817663 -0.001447019163398225 -0.012885661737103147 -0.0014142963364616131 -0.012729399480647812
          -0.0013832193486805454 -0.012579323831894224 -0.001353774850902124 -0.012435058366870172 -0.0013259496777385546 -0.012296246302448861
          -0.0012997329966719412 -0.012162542554510826 -0.0012750817055688548 -0.012033614963135052 -0.002243097013896676 -0.019055562303370733
          -0.0021857281189128315 -0.018641221754095074 -0.002129500816998958 -0.018250120428972796 -0.002074561266378935 -0.017880523450157008
          -0.0020210181495203257 -0.017530856499285503 -0.0019689507687473636 -0.01719968805318813 -0.0019184154049276658 -0.016885713842269064
          -0.0018694503299525338 -0.01658774322949734 -0.0018220797707522783 -0.016304687250469414 -0.001776317053057964 -0.01603554809183333
          -0.0017321671007995895 -0.015779409817086094 -0.0016896284274180886 -0.015535430176001955 -0.0016486947252134425 -0.015302833357385727
          -0.0016093561357501472 -0.01508090356509316 -0.0015716002664610184 -0.014868979314893813 -0.001535413004385377 -0.014666448365211013
          -0.0015007791658058988 -0.01447274320808237 -0.001467683008007345 -0.014287337056804452 -0.0014361086119182441 -0.014109740269788187
          -0.0014060401127059946 -0.01393949713532836 -0.001377461689943582 -0.013776182881724332 -0.0013503571092478115 -0.013619400600413353
          -0.001324708247544147 -0.01346877736327947 -0.0013004938154315073 -0.013323957293517413 -0.001277650263647572 -0.013184598914461108
          -0.0019679750406539787 -0.02088617056977202 -0.0019191069481917914 -0.020417346650282282 -0.0018711211045892024 -0.019974999536198804
          -0.0018241637827577345 -0.019557166147727074 -0.0017783436455757824 -0.019162063083268236 -0.0017337399822373303 -0.01878806739464933
          -0.00169040914268684 -0.018433699609395067 -0.0016483895840363975 -0.01809760873469471 -0.001607705842246496 -0.0177785590040494
          -0.0015683716676426645 -0.01747541815376606 -0.0015303925069893754 -0.01718714704125603 -0.0014937674728142006 -0.01691279043982909
          -0.0014584909088450847 -0.01665146886505913 -0.0014245536361699505 -0.016402371305719046 -0.001391943946136942 -0.016164748747663406
          -0.0013606483916957805 -0.01593790839171523 -0.0013306524178555122 -0.01572120847616331 -0.001301940863646983 -0.015514053619982614
          -0.001274498362483155 -0.015315890602383255 -0.0012483096665070923 -0.015126204483850776 -0.0012233599281545051 -0.014944514945631988
          -0.00119963500074018 -0.01477037266425923 -0.001177121905532299 -0.014603355422411306 -0.0011558096486308184 -0.014443063503482444
          -0.001135692095972095 -0.014289113599696947 -0.001116740458687812 -0.01414113568390821 -0.001431773059249257 -0.021927997912993512
          -0.001396653494040858 -0.021437257377295554 -0.001362207014735435 -0.020973977668860198 -0.0013285315009071736 -0.02053616186709917
          -0.0012956989000053112 -0.020121991602915206 -0.001263760952951152 -0.01972980870864927 -0.0012327536630214386 -0.01935809886248538
          -0.001202700797305249 -0.01900547702766383 -0.0011736166396312717 -0.01867067449603196 -0.0011455081616213935 -0.01835252735912961
          -0.0011183767395006273 -0.018049966245665176 -0.00109221951494886 -0.0177620071803227 -0.0010670304760929236 -0.01748774343449705
          -0.0010428013178812642 -0.017226338254366803 -0.0010195221282450124 -0.0169770183655043 -0.0009971819366870183 -0.01673906816601633
          -0.0009757691546375848 -0.016511824532136486 -0.0009552719316727498 -0.016294672171272135 -0.000935678448253511 -0.01608703946752617
          -0.0009169771633474595 -0.01588839477252941 -0.000899157031037884 -0.015698243096924937 -0.0008822076799955874 -0.015516123147215745
          -0.0008661194664660131 -0.015341604607586302 -0.0008508828867955926 -0.015174285409397784 -0.0008364868409613706 -0.01501378800599012
          -0.0008228930907623936 -0.014859749338880738 -0.0007527623900271027 -0.022572953909811795 -0.0007344203769128991 -0.022068665190511667
          -0.0007164410424372379 -0.021592444218764544 -0.0006988734332307271 -0.021142273761258705 -0.0006817533660370923 -0.020716314355638695
          -0.0006651063625353078 -0.02031288651850014 -0.0006489499387012253 -0.019930454788328545 -0.0006332953974268792 -0.019567613445095333
          -0.0006181492368862531 -0.019223073746583382 -0.0006035142602519926 -0.018895652527274164 -0.0005893904522755046 -0.018584262015407558
          -0.0005757756731321252 -0.01828790073549773 -0.0005626662084898608 -0.018005645375816913 -0.0005500572060404184 -0.01773664351239906
          -0.0005379430220110909 -0.017480107092481916 -0.0005263174959043486 -0.017235306590914733 -0.0005151741673914492 -0.01700156576301161
          -0.000504506445415796 -0.0167782569272559 -0.0004943077355770099 -0.0165647967224551 -0.00048457152734750404 -0.016360642298890008
          -0.00047529143879939154 -0.016165287925518666 -0.0004664612227929351 -0.01597826202870965 -0.0004580748091884358 -0.01579912471552909
          -0.0004501268055979683 -0.01562746580316007 -0.00044261663911076795 -0.015462903143495072 -0.00043556313681892287 -0.015305076952779401
          -0.0006381295972862923 -0.0135896687634418 -0.0003834088790293056 -0.013390408846804725 -0.0003335265127780616 -0.014295087404435691
          -0.0009638882298836923 -0.01327104661449763 -0.0002989665870244397 -0.013748995431466269 -0.00024255470961446655 -0.01457219643876511
          -0.0007111361994895514 -0.014207631696996634 -0.0006580538628717751 -0.013155946725421402 -0.0008468073014166986 -0.013088158783718364
          -0.0011324128790801652 -0.012951690918802387 -0.0001602415543291654 -0.014902146416796658 -0.0001638804841179882 -0.013598041484890206
          -0.0001863435876442474 -0.014091421182013083 -0.0001440030853881826 -0.014415411264871067 -0.000466079040254637 -0.014597702593994333
          -0.0009182434942625683 -0.013950767758902968 -0.0004841116978121232 -0.01358464865515754 -0.00013034000322649516 -0.013843378214524213
          -0.000781118705457153 -0.013694157346240781 -0.0004186841731501503 -0.01391751230090873 -0.0005595537449449086 -0.014072720009453414
          -0.0001010768239612145 -0.014656552908863186 0 -0.02305702798065423 0 -0.022533199632682136
          0 -0.022038728757509122 0 -0.02157149540256865 0 -0.02112956661942908
          0 -0.020711177923885396 0 -0.020314716602710028 0 -0.01993870673037561
          0 -0.019581795747603624 0 -0.01924274245309219 0 -0.018920406265644604
          0 -0.01861373762325478 0 -0.0183217693966757 0 -0.01804360920644409
          0 -0.017778432543534776 0 -0.017525476604217584 0 -0.01728403475870165
          0 -0.01705345157979304 0 -0.016833118360103847 0 -0.016622469040431468
          0 -0.01642097645047429 0 -0.0162281487142018 0 -0.01604352558479053
          0 -0.015866674370491683 0 -0.01569718541497245 0 -0.015534668476398634
          0 -0.015378809803995442 0 -0.01517804568505496 0 -0.014927408974829548
          0 -0.014669099702094124 0 -0.014404520308076433 0 -0.01413564847743051
          0 -0.013864754006388832 0 -0.01359413829280029 -0.00005126460345760189 -0.014731464440184378
          -0.000049882837302827923 -0.014600793536530546 -0.00007293156871146476 -0.014483093979484165 -0.00007088638345694675 -0.014349163570904674
          -0.00008356264816835387 -0.015103302534665842 -0.00008146489709089229 -0.014985117113181639 -0.0000792281966255738 -0.014858202282494435
          -0.0000660948242821542 -0.01392723915127463 -0.00006446835371463718 -0.013792019070585727 -0.00008287888168572057 -0.013672070970518152
          -0.0000811101564848283 -0.013536707965663818 -0.00009490517177102702 -0.01419097712977465 -0.00009234067071676056 -0.014056590075106509
          -0.00038131592732413563 -0.022751730698477402 -0.000372048921248832 -0.022243576421207292 -0.00036296539477357584 -0.021763658825011762
          -0.00035409004899869073 -0.02130995509511191 -0.00034544090829966104 -0.020880619947501178 -0.00033703080199304987 -0.02047396799733766
          -0.00012300311946365156 -0.014534210601773515 -0.0001298126425144173 -0.014777623394111202 -0.00032886852006521215 -0.020088457916907155
          -0.0003209597180528995 -0.019722678236650953 -0.0003133076278645596 -0.019375334638080208 -0.00030591361774190006 -0.019045238590954198
          -0.0002987776344014405 -0.018731297195289077 -0.0002918985527460419 -0.018432504099304275 -0.00028527445274709304 -0.01814793137587009
          -0.00027890283871685273 -0.017876722251575782 -0.0002727808129368993 -0.01761808459366235 -0.0002669052133958149 -0.01737128507058577
          -0.0002612727243997007 -0.017135643911851725 -0.000255879969696442 -0.016910530202231173 -0.00025072360191143454 -0.01669535765506533
          -0.00024580041211063323 -0.01648958082019848 -0.00024110750290095982 -0.016292691696043915 -0.00017246341810017268 -0.01461949293260878
          -0.00023664259963697418 -0.016104216735111258 -0.00023240459962157436 -0.015923714257533837 -0.00014725553636244269 -0.013718044232496106
          -0.0001656964698076362 -0.014249550757237142 -0.00022839437093044988 -0.015750772298177156 -0.0001574259022499551 -0.013965007699668278
          -0.00022461478933924326 -0.015585006600635345 -0.0002210656771669618 -0.01542605797189859 -0.0002176324862787495 -0.015273537153350362
          -0.00019239792795659275 -0.0144950140755944 -0.00020295978154099658 -0.01473504613335597 -0.0001640463900800386 -0.013453774888179138
          -0.000762049356621055 -0.022836302090275665 -0.0007435494753268131 -0.022317162243601706 -0.0007253816633176701 -0.0218271715504229
          -0.0007076029332772829 -0.021364216596447636 -0.0006902552998694551 -0.02092637137112895 -0.0006733691076071434 -0.02051187850193923
          -0.000656965621497989 -0.020119132398602645 -0.00023986207438226784 -0.014364903429544563 -0.0002153855758108563 -0.013804056623376498
          -0.0006410590518595328 -0.019746664154106173 -0.0006256581425362319 -0.01939312804214428 -0.0002908503721278919 -0.015041366208106097
          -0.0006107674205701925 -0.01905728945324581 -0.000596388182157535 -0.018738014119942883 -0.0002303252267326735 -0.013676715602872437
          -0.0005825192723121504 -0.01843425849227677 -0.00025813353574983985 -0.014196340217215298 -0.00024425647726823187 -0.013919296410157832
          -0.0005691577025199493 -0.018145061137020135 -0.0005562991406850333 -0.017869535046205358 -0.0005439383000229453 -0.01760686075229465
          -0.000289243877879536 -0.014433638318892786 -0.0005320692476151008 -0.017356280158326395 -0.00031841241566336035 -0.014773879201544248
          -0.0005206856485872375 -0.01711709100162964 -0.0005097809578176888 -0.01688864187955058 -0.0011067519613090497 -0.02231728746689893
          -0.0004993485671854462 -0.016670327775993265 -0.0010797395855313904 -0.021818253915888555 -0.0004893819121041439 -0.016461586040233546
          -0.00047987453666180146 -0.016261892787424306 -0.0010532513575078966 -0.021347049234336238 -0.00027566651447728774 -0.013507124228840948
          -0.00030464877775791084 -0.014019717046721858 -0.00047082011672430074 -0.01607075971693764 -0.001027361265485989 -0.020901664091236668
          -0.0004622124738537926 -0.015887731378756084 -0.0003540217723155286 -0.01459828629137373 -0.0004540458021466846 -0.01571238292177405
          -0.0010021235350169322 -0.02048026724026314 -0.00044631678991359107 -0.015544318238750188 -0.000977577001167459 -0.020081187506692178
          -0.00043903313222113944 -0.015383166329337318 -0.00043240087579798724 -0.015228593422123344 -0.0009537485202689854 -0.01970289767229873
          -0.0009306556423920686 -0.019344000083578207 -0.0009083087118987448 -0.01900321381127498 -0.0008867125234761461 -0.01867936319806987
          -0.0003973554860755591 -0.014445811452936788 -0.0008658676312195724 -0.018371367643364313 -0.0003774822598954799 -0.014103702070821237
          -0.0003575856558416063 -0.013834987535287236 -0.0003418902604812384 -0.01356656420730321 -0.00044871362597533206 -0.014866231989168805
          -0.0014495454338723623 -0.0221843386298391 -0.0008457713859158929 -0.018078232487479813 -0.0008264187587443961 -0.017799040871111678
          -0.0014141359759435811 -0.021679057613317662 -0.0008078029967579382 -0.017532946458879425 -0.0013793387459595493 -0.021202309192571583
          -0.0007899161456765724 -0.01727916692787185 -0.0013452672243827045 -0.020751999603045364 -0.0007727494678731447 -0.017036978132957962
          -0.0003931918734976138 -0.013677163595323468 -0.0007562937771498147 -0.016805708870134838 -0.001312005511371187 -0.02032622361985918
          -0.0007405397059945537 -0.016584736167015786 -0.00044927748708087074 -0.01419903320967568 -0.001279614817482396 -0.019923245134399893
          -0.0007254779139220804 -0.016373481035320124 -0.0012481385191999085 -0.019541479826300206 -0.0007110992345896678 -0.016171404623280254