<?xml version="1.0"?>
<VTKFile type="UnstructuredGrid" version="1.0" byte_order="LittleEndian" header_type="UInt64">
  <UnstructuredGrid>
    <FieldData>
      <DataArray type="Int8" Name="OGS_VERSION" NumberOfTuples="25" format="ascii" RangeMin="45" RangeMax="121">
        54 46 53 46 53 45
        49 57 55 45 103 98
        100 100 55 100 97 101
        49 46 100 105 114 116
        121
      </DataArray>
    </FieldData>
    <Piece NumberOfPoints="1565" NumberOfCells="490">
      <PointData>
        <DataArray type="Float64" Name="displacement" NumberOfComponents="2" format="ascii" RangeMin="0.00582178540819181" RangeMax="0.0490499170956679">
          0.014917567986558319 0 0 -0.0490499170956679 0.014866032160259309 -0.004042912151558471
          0.014711812662767568 -0.00805851487600655 0.014456068465073437 -0.012019667785472152 0.01410071532726494 -0.01589956397574376
          0.013648401946806901 -0.019671901840642197 0.013102478444699464 -0.023311049815161657 0.012466957377315327 -0.02679221364829252
          0.011746468901616531 -0.030091601749567272 0.0109462114849147 -0.03318658810872923 0.01007189926966003 -0.03605587271409872
          0.009129707971377386 -0.03867963625759796 0.008126220676641118 -0.041039688012928316 0.007068373449369479 -0.04311960783140758
          0.005963403457644836 -0.04490487562505526 0.004818798873797577 -0.04638298998555942 0.003642251349592541 -0.04754357255898201
          0.0024416114924707636 -0.048378456033554326 0.0012248464964360892 -0.04888175493746818 0 -0.0476474234534653
          0 -0.04595543596600384 0 -0.044165128127764866 0 -0.042377806853271804
          0 -0.04064688242600438 0 -0.03899894560463989 0 -0.03744552905171686
          0 -0.03598968537946677 0 -0.034629762268661525 0 -0.03336159280355021
          0 -0.032179775666987966 0 -0.031078422346493897 0 -0.030051588290592252
          0 -0.029093514906682126 0 -0.02819875788221086 0 -0.02736224729823839
          0 -0.026579307200303538 0 -0.02584565156931484 0 -0.025157367098634757
          0 -0.024510889158133986 0 -0.023902974828001595 0 -0.023330675327048928
          0.010573557341640071 0 0.010746691099652967 0 0.010929336135211389 0
          0.011122076537386854 0 0.01132552609667004 0 0.01154032552020656 0
          0.011767137478180829 0 0.012006638550857783 0 0.012259506760231985 0
          0.012526402815699975 0 0.01280794239910434 0 0.013104655638180206 0
          0.013416928179561008 0 0.0137449156773123 0 0.014088419591796736 0
          0.014446706192555014 0 0.014818241344951941 0 0.015200298980737291 0
          0.015588377626465142 0 0.015975320944748576 0 0.016349974267758655 0
          0.016695099908869613 0 0.016984084042054592 0 0.01717562299201267 0
          0.01720495608866751 0 0.016968916734522076 0 0.01630011960128023 0
          0.01617541253230041 -0.003100990425446388 0.016797716982653678 -0.0024277151199315924 0.017004348201653596 -0.0019346591733273636
          0.016956803198890688 -0.0015660204068186905 0.01675452130524185 -0.001285477893993601 0.0164598422602919 -0.001068679732723381
          0.01611246343229477 -0.000898895509688027 0.0157379130625136 -0.0007643736185279438 0.015352683837912592 -0.0006566979105232587
          0.014967412552202516 -0.0005697349721783027 0.01458889177120735 -0.0004989444808005211 0.014221365339022915 -0.0004409174790538849
          0.013867375775811352 -0.0003930613127405822 0.013528325971886832 -0.00035338085538551826 0.013204855712101633 -0.00032032416674085076
          0.012897096416875071 -0.00029267201421421765 0.012604844745736168 -0.0002694577294731813 0.012327681524229193 -0.0002499083510681959
          0.012065053458000503 -0.00023340090484987836 0.011816329303082516 -0.00021942958417951435 0.011580838376559243 -0.00020758086934772563
          0.011357896787933546 -0.00019751449212820937 0.011146825095598379 -0.00018894874703141208 0.010946959959019991 -0.0001816490653706013
          0.010757661582688203 -0.0001754190601269522 0.01057831821403789 -0.0001700934573463248 0.010408348586623878 -0.00016553247918499328
          0.015806367372308644 -0.00621470890807057 0.01629221656017974 -0.004894461612679226 0.01641257460137832 -0.003925761139289272
          0.01631163903292953 -0.003199994096242513 0.01607789933037993 -0.002646423409270832 0.015766583572854084 -0.0022175914343273615
          0.015412670838384988 -0.0018808708814120737 0.015038500899587836 -0.0016133270695505393 0.014658378525121713 -0.001398521969260796
          0.014281419790359838 -0.0012244661225693533 0.01391334920468521 -0.001082276415880734 0.013557654317951787 -0.0009652770739812265
          0.013216338932392787 -0.0008683859518906793 0.01289042082363501 -0.0007876881908272883 0.012580264188821591 -0.0007201352991542404
          0.012285803627662281 -0.0006633296462434654 0.012006696030426768 -0.000615368049335106 0.011742424015062989 -0.0005747268418802337
          0.011492366489673363 -0.0005401764539680133 0.011255846727971782 -0.0005107172516068368 0.011032164961048186 -0.0004855308673926701
          0.010820620253211049 -0.00046394294171647635 0.010620524935780891 -0.00044539435336783537 0.010431213863838404 -0.00042941882575402656
          0.010252050073085122 -0.00041562536355979114 0.010082427940884034 -0.0004036843795247535 0.009921774627645484 -0.0003933166622111245
          0.015207918970060892 -0.009351722901815955 0.015476232459861955 -0.007435602344384916 0.01545918550813208 -0.0060251017727448826
          0.01527333907022393 -0.00496459842869684 0.014989691787718492 -0.004152634279177765 0.014652113471541751 -0.0035210636799669257
          0.014288048643899567 -0.0030229798368046385 0.01391474638922182 -0.002625368300194479 0.013543018988706596 -0.0023045343976140628
          0.01317955564395349 -0.0020431710642351848 0.012828376866112812 -0.0018284359240274815 0.012491764004501572 -0.00165066242332405
          0.012170862016127144 -0.001502479324356862 0.011866075012891983 -0.0013781985353106538 0.011577328321321023 -0.001273382677928278
          0.011304243346611042 -0.0011845351311645955 0.01104625479007252 -0.0011088748655455087 0.010802689359112874 -0.0010441708386612005
          0.010572818530650707 -0.000988618795626567 0.010355893708705653 -0.0009407486382309143 0.010151169372556081 -0.000899354086605266
          0.00995791800490339 -0.0008634387739656117 0.009775439386354334 -0.0008321745775233941 0.0096030660332318 -0.0008048691466562567
          0.009440166006338891 -0.000780940405425391 0.009286143942299159 -0.0007598963878170202 0.009140440899853459 -0.0007413191824390425
          0.014403999930956222 -0.012518416752164791 0.014387891842589725 -0.010079393734490603 0.01419146942773518 -0.008275473580255498
          0.013895036797225075 -0.0069122877996822185 0.01354665030666882 -0.005862921310424808 0.013175284787161994 -0.005041985224119459
          0.012798506610130218 -0.0043905981050833265 0.012426892682087035 -0.003867238375268539 0.012066679349708564 -0.0034420457606952125
          0.011721377315551578 -0.003093163494988862 0.01139277637276432 -0.0028043371014609977 0.01108157968215191 -0.002563303212646977
          0.010787809223123446 -0.002360687635157151 0.010511067351727486 -0.0021892383319243166 0.010250706569857312 -0.0020432829421794677
          0.010005940001087685 -0.001918339449212983 0.009775913167356017 -0.0018108329771068423 0.00955975029787147 -0.0017178872137171767
          0.00935658377552276 -0.0016371690206195845 0.009165572376686618 -0.0015667714263147628 0.008985912055542179 -0.0015051246426228833
          0.008816841779380417 -0.0014509277628309636 0.008657646099674223 -0.0014030958782907418 0.008507655596126915 -0.0013607187987427132
          0.008366245963161005 -0.0013230285831867012 0.008232836259574631 -0.001289373816434635 0.00810688667292602 -0.0012591990910783
          0.013426162511692161 -0.015715249503136984 0.013077379311320383 -0.012844004057164635 0.012671634633510101 -0.010706879302802895
          0.012246609919545534 -0.009080989507163373 0.011823398438008203 -0.007820479571594643 0.011413475459605112 -0.006826983327232943
          0.011022806229579263 -0.006032499890866039 0.010654135089700239 -0.00538894936526444 0.010308329313616405 -0.004861658417962834
          0.009985172348384494 -0.004425172962145419 0.009683839926710937 -0.0040605053739082965 0.009403187307960114 -0.0037532846149491523
          0.009141922851302628 -0.003492489042406911 0.00889871215345401 -0.003269562905468271 0.008672239415582027 -0.0030777904054342256
          0.008461242311228813 -0.002911845662933074 0.008264530420448401 -0.002767464754656206 0.008080993516197005 -0.0026412037083626597
          0.00790960365857838 -0.002530257852325672 0.007749413597408785 -0.0024323255102420946 0.007599553065839156 -0.002345504123615986
          0.0074592239642307274 -0.002268210345475778 0.00732769506001843 -0.002199118035057078 0.007204296589437732 -0.002137109747843729
          0.007088414992581303 -0.0020812384906926623 0.006979487914116797 -0.0020306973506458792 0.012311769109945258 -0.018935397986642517
          0.011603979103443726 -0.015735170933430243 0.01097310848543096 -0.01333354914383493 0.010410504127973959 -0.011490708651327675
          0.009907959508659378 -0.01004923434270572 0.009457942968020496 -0.008902615503812846 0.00905382614224582 -0.00797696775386083
          0.00868985604530232 -0.007219862667559806 0.008361079398274985 -0.00659334839108857 0.008063242368634987 -0.006069454739843904
          0.0077926919925336196 -0.00562723231110224 0.007546286242250373 -0.0052507585842269 0.007321315660922955 -0.004927769093108223
          0.007115436517754237 -0.0046487008946262945 0.006926614476273032 -0.004406013296757984 0.006753077403202063 -0.0041936982939497275
          0.006593275934168221 -0.004006922899365089 0.006445850531601388 -0.003841764538471504 0.006309603936542569 -0.0036950130019962873
          0.006183478085820105 -0.0035640206070338336 0.006066534721582469 -0.0034465876860828135 0.005957939055174528 -0.003340874249275551
          0.0058569459611910015 -0.0032453312361598744 0.005762888271914581 -0.003158646570172849 0.005675166819826965 -0.00307970249936791
          0.005593241939136414 -0.0030075416151565016 0.011101859755475703 -0.0221638849531476 0.010032590558465842 -0.01874465545814993
          0.00917617828710235 -0.016151956312130414 0.008476814127393824 -0.014141260544314924 0.007896489356444774 -0.012551395037168206
          0.007408353001155576 -0.011272816458534236 0.006992986135637123 -0.010229181963065038 0.006636013387483126 -0.009366055164433148
          0.0063265814551913555 -0.00864383233873524 0.006056349111965435 -0.008033174369491143 0.0058188037070696875 -0.007511989335231827
          0.005608787499989932 -0.007063394652551913 0.005422163087151014 -0.006674313875167598 0.0052555727605038925 -0.0063344931003151
          0.005106262603040145 -0.006035800245288181 0.0049719519802749555 -0.005771718361147566 0.004850735387684269 -0.0055369742067328115
          0.004741007704154059 -0.00532726251402391 0.004641406610767526 -0.005139038883089447 0.004550767758453927 -0.0049693625254637235
          0.0044680895160466114 -0.0048157756434097435 0.004392504996596049 -0.004676210031813939 0.004323259669397784 -0.004548914116675364
          0.004259693299523883 -0.0044323954839263265 0.0042012252699142275 -0.004325375255804034 0.004147342569409522 -0.004226751605844038
          0.009838826549245885 -0.025377251340323096 0.008429929723666638 -0.021849593374319402 0.007363240213487193 -0.019139958091419763
          0.0065379228386926716 -0.01701127505241225 0.005887536263649361 -0.015306372286159794 0.0053668172517171275 -0.013917761775008947
          0.004944171083180295 -0.01277005423634025 0.00459702556510483 -0.011809139372942827 0.00430892738853282 -0.010995385574375984
          0.004067662907987101 -0.010299231564198864 0.0038640160664551873 -0.009698263088689778 0.0036909284991365676 -0.009175230585961222
          0.003542920597352665 -0.008716678518749972 0.0034156852242367246 -0.008311980466444558 0.0033057979367946814 -0.007952648698162845
          0.003210507199883299 -0.007631832696569742 0.003127580415813214 -0.007343949875394472 0.0030551894803194954 -0.007084410166480164
          0.0029918247154637327 -0.0068494081851908604 0.0029362294351344955 -0.00663576467026795 0.0028873496903636785 -0.0064408042798991556
          0.0028442953062484473 -0.006262260510204072 0.0028063094049839334 -0.0060982010572684575 0.0027727443682614276 -0.005946968738021313
          0.0027430427302948626 -0.005807134360151792 0.008564035989603301 -0.028543801612006658 0.006860648191464676 -0.025012791230655463
          0.005613945733510224 -0.022257122673379606 0.0046830255488715155 -0.02005854099402673 0.003976178117027234 -0.018271131231948436
          0.003431804002271289 -0.016794224307855196 0.003007525504148492 -0.015556583330559454 0.002673526867139293 -0.01450661560431802
          0.002408418400834879 -0.013606189030214565 0.002196582961367181 -0.012826600805168424 0.002026436716000893 -0.01214588889972471
          0.001889263590559955 -0.011546998238768768 0.0017784192652913772 -0.011016505153369006 0.001688777915454906 -0.01054371398682818
          0.0016163415186576638 -0.01012000671330006 0.0015579599091978399 -0.009738367617750387 0.0015111274843556826 -0.009393031087699838
          0.001473833740683568 -0.00907921728499439 0.0014444521246894833 -0.008792931420155045 0.0014216564957725325 -0.008530809650896538
          0.0014043577199659438 -0.008289999567110153 0.001391655098934515 -0.008068066618024835 0.0013827988421399884 -0.007862920199800895
          0.001377160837093685 -0.007672754787606514 0.001374211710224706 -0.007496002684793126 0.007315542734645547 -0.03162441639517316
          0.005383604749878492 -0.028183957996514217 0.004000540695292804 -0.02544622977944702 0.0029928723559938175 -0.023221677039477532
          0.0022483939266510354 -0.02138196648631442 0.0016922926022011494 -0.019837408152147545 0.0012734970418902772 -0.018523717060663924
          0.000956373472182116 -0.017393740619109165 0.0007155847878383428 -0.016412189707910453 0.0005328064087692516 -0.015552173331959532
          0.00039458271521311566 -0.014792867287977206 0.000290897076282342 -0.014117909847466754 0.00021419990797537077 -0.013514275906367208
          0.00015873652082628862 -0.012971472503955922 0.00012007497042213912 -0.012480954501720114 0.00009476961554804044 -0.012035693764457686
          0.00008011821236811774 -0.011629857124675529 0.00007398440935446011 -0.011258562598209895 0.00007466658043325049 -0.010917692669759357
          0.00008079989451980202 -0.0106037497345934 0.00009128249641919294 -0.01031374305066414 0.00010521936507612468 -0.010045099504373057
          0.00012187926028737674 -0.009795592558841586 0.000140661449778293 -0.009563285218814983 0.006126033678888832 -0.0345738888057844
          0.004048517222077632 -0.031301802519749136 0.002583681682629859 -0.02863585866818974 0.0015350501364642002 -0.026423031998487362
          0.0007760136998554193 -0.024557595016651237 0.0002225291587377632 -0.022964152618871532 -0.0001825069960648419 -0.02158761126685356
          -0.0004787332319142905 -0.02038680272580937 -0.0006941781001786029 -0.01933036492613589 -0.0008489912436692269 -0.018393991850768145
          -0.000957872630925463 -0.017558556301137042 -0.001031688723223861 -0.01680879933427524 -0.0010785678534711084 -0.01613239750241558
          -0.0011046554537431392 -0.015519287087265863 -0.0011146428646329819 -0.014961166621611562 -0.0011121428766729848 -0.01445112526624867
          -0.0010999598959238396 -0.013983361469376319 -0.0010802866237198977 -0.013552967348400856 -0.0010548488133404633 -0.013155761567101389
          -0.0010250128924472655 -0.012788158446078602 -0.0009918667284112693 -0.012447064459393208 -0.0009562807660758682 -0.01212979565348282
          -0.0009189546817324378 -0.011834011210160398 -0.0008804532520340956 -0.011557659582932513 0.005021126154108042 -0.03734271041749722
          0.002893197375909435 -0.03429687564744435 0.0014089836764082859 -0.031743911867787605 0.00036009081124954836 -0.029572643339335552
          -0.00038744618358276407 -0.02770338369132404 -0.0009222974806806452 -0.02607731587154451 -0.0013045248452081355 -0.024650091781869894
          -0.0015756787925677452 -0.02338760818467024 -0.0017650312016327628 -0.02226319571862743 -0.0018935404644966811 -0.02125568497832937
          -0.001976429075906191 -0.02034804917611167 -0.0020248955095190984 -0.01952643114502428 -0.0020472723268204645 -0.018779433391956344
          -0.002049823081927614 -0.018097591562044473 -0.0020372991442152632 -0.01747297818357357 -0.002013334252178899 -0.016898900465508543
          -0.001980727684000991 -0.016369667016967775 -0.0019416498858185615 -0.015880405764188355 -0.001897793409803865 -0.015426920376523936
          -0.0018504848136625036 -0.015005575992095508 -0.0018007683825505092 -0.014613207473597007 -0.0017494693021280745 -0.014247045159544598
          -0.00169724170191128 -0.01390465432555124 -0.0016446054591861719 -0.01358388548061546 0.004018121281303114 -0.03987920719259412
          0.001941535271960637 -0.03709499207384549 0.0005045077087499398 -0.034681867305437424 -0.0005013582723316567 -0.03257301934105447
          -0.001209809366848835 -0.030716459807995724 -0.0017091967889180917 -0.029071076441404296 -0.002059239447637506 -0.02760405233003474
          -0.0023011537297827444 -0.026288909920274262 -0.002463901371898676 -0.025104080805221005 -0.002568159979273617 -0.0240318349022121
          -0.0026289013273024693 -0.023057474002327397 -0.0026571016775780243 -0.022168717276769667 -0.002660897375865887 -0.021355228565696018
          -0.0026463789565765033 -0.020608249186261137 -0.002618145210125079 -0.019920310108926243 -0.002579695181105415 -0.019285004390120097
          -0.0025337090433266594 -0.018696805776159568 -0.002482251704378386 -0.018150922995900626 -0.0024269219794176436 -0.017643181870204864
          -0.0023689629626350295 -0.01716992927449619 -0.0023093444306588285 -0.016727954398293284 -0.0022488248799415684 -0.01631442379296993
          -0.002187998592459586 -0.015926827484894372 -0.00212733159772546 -0.015562934025563493 0.003125288513835256 -0.04213189631643895
          0.0012023563011581521 -0.0396210241137747 -0.00012065784061487927 -0.03735950030728878 -0.0010401288492171137 -0.03532445405778755
          -0.0016819427508609425 -0.033491393847373596 -0.0021291428318130456 -0.031836830333499946 -0.002437776305709089 -0.03033946031990215
          -0.002646461163023691 -0.028980448754208375 -0.002782283622440504 -0.027743362371701507 -0.0028645431014354015 -0.026613952438519887
          -0.0029071822245279244 -0.025579893831523915 -0.0029203974285625283 -0.024630526092477453 -0.0029117262290592823 -0.023756616388236045
          -0.002886793659830028 -0.022950150906344995 -0.0028498325550335626 -0.02220415517346321 -0.0028040512448575107 -0.02151254109889603
          -0.0027518967113157222 -0.020869977583884657 -0.002695245111258691 -0.020271781384841692 -0.0026355411802794944 -0.019713825133129942
          -0.002573901228963762 -0.019192459768898027 -0.0025111899229845486 -0.018704449032480187 -0.002448077992872634 -0.01824691402327993
          -0.0023850859401744243 -0.017817286162421644 0.0023417215220916826 -0.04405192876911103 0.0006692174802013857 -0.04180284356918108
          -0.00047663860724579525 -0.03968979408625943 -0.0012687964355505797 -0.03773055672319013 -0.0018180349923852981 -0.035926112933607535
          -0.0021973601206625145 -0.034269328515195166 -0.0024559922865782058 -0.03274960816322155 -0.0026278055401216284 -0.031355242173386144
          -0.0027365276857380777 -0.030074599224553557 -0.002799040694722678 -0.02889669780931472 -0.00282752111402646 -0.02781144983722399
          -0.0028308578919360285 -0.026809730844749 -0.002815608907560383 -0.02588336137933277 -0.002786657214584531 -0.02502504556142403
          -0.002747668125972364 -0.024228291898081292 -0.002701411997335712 -0.023487329770950777 -0.002649995048476622 -0.02279702853587823
          -0.002595026328542717 -0.02215282255354552 -0.0025377397668535336 -0.02155064347236475 -0.0024790842563135653 -0.02098686000473496
          -0.0024197907341268303 -0.02045822487934333 -0.0023604225422289285 -0.019961828388668945 -0.00230141351952679 -0.019495057851856006
          0.0016577724301620465 -0.04559547166919809 0.00032115391105410604 -0.043575173772168574 -0.0005918249247088526 -0.04159374139610919
          -0.0012206003870109748 -0.03970366030527269 -0.0016544345623352124 -0.03792768613548724 -0.0019521128838689502 -0.03627268214753713
          -0.00215323904103626 -0.03473723045471147 -0.0022850461489203003 -0.03331573861789077 -0.0023665927376981867 -0.03200070620058558
          -0.0024114248429141874 -0.030783969164276098 -0.0024293018067688328 -0.029657374235732288 -0.0024273389966700245 -0.02861313034726044
          -0.002410778399659998 -0.027643976786002687 -0.002383517054532236 -0.026743247700178774 -0.002348474928755998 -0.02590487899843814
          -0.0023078545651954996 -0.025123384388947175 -0.0022633266474206665 -0.024393816111388376 -0.0022161641453884696 -0.02371171934270713
          -0.002167340310060016 -0.023073085372252174 -0.002117600949661126 -0.022474306337447958 -0.002067518208949932 -0.021912132946588756
          -0.002017530910358571 -0.02138363581392504 0.0010560355326831613 -0.04672588823122274 0.00012432753911013336 -0.04488311925700354
          -0.0005107920138042947 -0.043004746352803165 -0.0009470874136530354 -0.0411697808059313 -0.0012471204034868442 -0.03941762992922752
          -0.0014520737133716694 -0.03776587023698809 -0.0015896785121626866 -0.03622011467833289 -0.0016789934384215323 -0.034779462538430436
          -0.0017333481824722582 -0.03343958585821448 -0.001762210543872576 -0.03219448786058489 -0.0017723965277034748 -0.031037506485790452
          -0.0017688713792709595 -0.029961880833839567 -0.0017552896084057537 -0.028961062170652644 -0.00173436519453028 -0.02802887482448969
          -0.0017081292256726222 -0.027159589012406518 -0.0016781116747244856 -0.02634794251805017 -0.001645471262293793 -0.025589133355478053
          -0.0016110892963516225 -0.024878796725850694 -0.0015756381926732344 -0.02421297424776561 -0.0015396319883491732 -0.023588080202327943
          -0.0015034639086747128 -0.02300086755360953 -0.001467434531531757 -0.02244839529266565 0.0005128172595376192 -0.04741558622707987
          0.00003447465261518142 -0.04568516110567053 -0.00029121935217231454 -0.043872360864313155 -0.0005146249633188046 -0.042072827412938635
          -0.0006679620295258654 -0.04033641254030742 -0.0007724345529092131 -0.0386874158552469 -0.0008423166571689163 -0.03713586509299364
          -0.0008874153680433433 -0.03568380759218595 -0.000914587378998011 -0.03432891045936239 -0.0009287009717771918 -0.0330665411742776
          -0.0009332593796851947 -0.03189097749111374 -0.0009308133654566237 -0.030796108711265053 -0.0009232393186413795 -0.02977583630524675
          -0.0009119298672477786 -0.028824295297193096 -0.0008979265061471962 -0.02793596847909392 -0.0008820131535378495 -0.027105736752327827
          -0.0008647829740616933 -0.0263288918563952 -0.0008466866542442894 -0.025601127503773743 -0.0008280676436758306 -0.02491851871077764
          -0.0008091881278874435 -0.024277495288523823 -0.0007902483387354078 -0.023674813091598863 -0.0007714010270954846 -0.0231075251518011
          0 -0.04840279784078801 0 -0.04682350911364691 0 -0.045065180133935165
          0 -0.04326720372401628 0 -0.041503350922065585 0 -0.03981167845278178
          0 -0.03821016509339152 0 -0.0367054870028645 0 -0.0352979877903777
          0 -0.033984549609063774 0 -0.032760266372899825 0 -0.03161942213558482
          0 -0.030556059748304897 0 -0.029564305303591255 0 -0.028638546018416
          0 -0.027773520038108332 0 -0.026964353579504805 0 -0.026206567043226808
          0 -0.025496063367610396 0 -0.024829106774582155 0 -0.024202296890268482
          0 -0.023612541251827688 0.0006169772817210746 -0.04902108048305068 0.0002574061533977606 -0.04760617645450297
          0.000015895467214338015 -0.04590783379021959 -0.00014854908240371942 -0.04411363864818332 -0.00026133417757666307 -0.04232423593202911
          -0.00033873869401012703 -0.04059236848018452 -0.00039146859167344327 -0.03894424128985598 -0.0004267328689982931 -0.037391127538241864
          -0.0004494838656287722 -0.03593590852953518 -0.00046318413737974755 -0.0345768161132211 -0.00047029201991704363 -0.03330960447504043
          -0.0004725764957113833 -0.03212881809736835 -0.0004713255416867201 -0.031028531088921476 0.0008326210378448685 -0.04819883241138684
          -0.00046748657770413976 -0.030002773100826295 -0.0004617627285288326 -0.029045767801750867 0.00025030149384231603 -0.046569972042259614
          -0.00045467980360856016 -0.028152058793627175 -0.0004466335442387079 -0.02731656806337537 -0.0001438549904397795 -0.04478207110557343
          -0.00043792336973031456 -0.026534614392961137 -0.0004287767565354277 -0.025801908511781844 -0.0004134329801434655 -0.0429672970765749
          -0.0004193670347933393 -0.02511453529184836 -0.0004098265042166537 -0.024468929295255196 -0.0005985698003165732 -0.041194946551735126
          -0.00040025618533142456 -0.023861847508031397 -0.0003907331276463915 -0.023290341551486262 -0.0007253175756192179 -0.03950022934169723
          0.0018466695857315494 -0.04868649895495741 -0.0008110254497786416 -0.037899271841085734 0.0007874076653429965 -0.04714493418309724
          -0.0008674960247171796 -0.03639752270706995 -0.0009029120040780336 -0.034994499746502074 0.00007550428475333402 -0.04537011760205803
          -0.0009230400893961861 -0.033686522895586046 -0.000409600727548468 -0.04353116984563391 -0.0009320031945424581 -0.03246829984837185
          -0.0009327862836876942 -0.03133384775209431 -0.0007426346552856563 -0.04171746773900709 0.001678506065780839 -0.04759069534749385
          -0.0009275743261027205 -0.030277024495552658 -0.0009714850760075499 -0.0399746735279946 -0.0009179820535704478 -0.029291828113501516
          0.0005448335105157203 -0.04581682326035336 -0.0009052126587828212 -0.02837255764667607 -0.00112765088299195 -0.03832443466932383
          -0.000890168995773531 -0.027513891222740106 -0.0012323461852753134 -0.036775030190072965 -0.00022332009314801482 -0.043942586055614956
          -0.000873532523320276 -0.026710915033757054 0.0030636072151979414 -0.048019604494951906 -0.0008558200201299974 -0.02595912370314068
          -0.0013001473410693676 -0.035327341443170505 -0.0007493749141614004 -0.042078937825736164 -0.0008374247768300582 -0.025254404561483614
          -0.0013412481060752312 -0.03397824624314427 0.0013618354349056263 -0.04623392870797974 -0.000818646813315068 -0.024593013475691185
          -0.0011112578620704908 -0.040282040942060324 -0.0007997152489032497 -0.02397154687003767 -0.0013628876486706846 -0.03272257242924533
          -0.0007808050025700978 -0.023386912713727614 0.00021666704715568374 -0.04431207773025483 -0.0013702766427557092 -0.03155422596722398
          -0.001359561083979347 -0.038578750257006605 -0.0013672101248337067 -0.03046683890170428 0.002549668180401354 -0.046589493671829255
          -0.0005649035985788308 -0.0423874196641035 -0.0015279849612056372 -0.03697975731134049 -0.0013564806692819538 -0.029454134524058134
          -0.0016394625974095098 -0.035486910388799725 -0.0013401616071299968 -0.028510124837575403 -0.0011025371082110625 -0.04052752001643797
          0.0009247118665751957 -0.044586048073217366 0.004259393617986621 -0.04702491977951874 -0.0013198041161690576 -0.027629208407067226
          -0.0017098986742625291 -0.03409730601074254 -0.0014729404070460102 -0.03876433966381111 -0.00017832697005300426 -0.042575699528291724
          -0.0012965762657312476 -0.02680620936870842 -0.0017505060088293112 -0.03280561637308692 0.00200657380598468 -0.044895529598350935
          -0.0012713623432739011 -0.0260363822272009 -0.001726586012544662 -0.03711071016712289 -0.0017693045011983341 -0.03160541782043619
          -0.0009354348593747795 -0.04063556018166547 -0.001244834621566529 -0.025315397386445237 -0.001897479567717581 -0.035569121283895444
          -0.0012175057567610113 -0.024639316488088786 -0.0017721031607232738 -0.03048994614354236 0.00048753842400855573 -0.04276754013709257
          0.0034556982931945733 -0.045213180412037826 -0.001457775853915469 -0.0388008478752313 -0.0011897674121385464 -0.024004563038471205
          -0.0017631563104252423 -0.02945251818346736 -0.0020089964926096673 -0.034136589349263224 -0.0011619189791193636 -0.023407891590694237
          -0.0005517800943319366 -0.040723564394574994 0.005425790642225946 -0.045709192618395046 -0.0017456097809820596 -0.02848675775354126
          -0.0018175499438128782 -0.037085100350309826 -0.0011341891069618533 -0.022846357380233343 0.0014250165572428052 -0.04291297307242074
          -0.0020774917517844336 -0.0328073769859891 -0.001721809162802821 -0.02758670655127732 -0.001268961321781034 -0.03880021833016542
          -0.002062873592021891 -0.0354903511528902 -0.002114586042462418 -0.031574524155277874 -0.0016935158415071867 -0.02674686784931002
          0.002742152803420831 -0.043161855168619555 0.00004281692985844105 -0.040727897474208366 -0.00212864871728558 -0.03043070552865454
          -0.0016620603981314318 -0.02596221152369095 -0.0022265070009631956 -0.03401271663964366 -0.001765071713357659 -0.037010031953165184
          0.004402748256095734 -0.043485751198188 -0.0016284528411452017 -0.02522815757453297 -0.0021257793354663556 -0.029368701594506056