<?xml version="1.0"?>
<VTKFile type="UnstructuredGrid" version="1.0" byte_order="LittleEndian" header_type="UInt64">
  <UnstructuredGrid>
    <FieldData>
      <DataArray type="Int8" Name="OGS_VERSION" NumberOfTuples="25" format="ascii" RangeMin="45" RangeMax="121">
        54 46 53 46 53 45
        49 57 55 45 103 98
        100 100 55 100 97 101
        49 46 100 105 114 116
        121
      </DataArray>
    </FieldData>
    <Piece NumberOfPoints="1530" NumberOfCells="715">
      <PointData>
        <DataArray type="Float64" Name="displacement" NumberOfComponents="2" format="ascii" RangeMin="0.00020043211145955717" RangeMax="0.01359902897408009">
          0.006814417985716825 0 0.00833587533282143 0 -0.005061344808950626 0.0023479047077828445
          0 -0.011312431129267669 0.008212801655925693 -0.00012588074008345349 0.007850146644748729 -0.000296370199287925
          0.007267855519373622 -0.0005524145006150176 0.006499073136623754 -0.0009298606119399953 0.005584344176022547 -0.0014556842726063514
          0.004573631003199233 -0.002147693137279491 0.0035187848442855127 -0.003011110822382961 0 -0.01319729339610731
          0 -0.01293717434629863 0 -0.012683853010097371 0 -0.012437006694257378
          0 -0.01219332614379355 0 -0.01194338987105221 0 -0.011664835779692139
          -0.0010273567988289022 -0.011151489879070739 -0.0019943705887181164 -0.010683166846774212 -0.0028493829368582417 -0.009946962174524974
          -0.003562314370518313 -0.008999215736390872 -0.004117893474596365 -0.007903289866823615 -0.004521149435692872 -0.006722726982926725
          -0.004789616510192749 -0.005507901560697262 -0.00495113806018196 -0.0042966952165790755 -0.005034762454456687 -0.0031117396992091685
          -0.005068548542585062 -0.0019638021661355564 -0.005073424304605571 -0.0008519919914746778 -0.00506831400125658 0.00022966006243858874
          -0.005062660809344151 0.0012920418666558958 -0.004004558464077482 0.0023466632717458434 -0.002953505287011518 0.0023417940131494285
          -0.0019154739192012715 0.0023371817186241765 -0.0008900702705136471 0.0023365465789312472 0.0001273096397154225 0.0023369914123555794
          0.0011411814172739266 0.0023289528684468986 0.0021495144367075975 0.0022952155199110163 0.003141426437415179 0.0022141275301779165
          0.004093399641794547 0.0020621270663017874 0.004970786249989525 0.0018220283086012824 0.005726776224999253 0.0014835810695081621
          0.0063132677774524965 0.001052688539748168 0.006686250097218809 0.0005469437879185013 0.006989753519869526 0
          0.007109408253684437 0 0.007205055293812468 0 0.0072924062141146145 0
          0.007378581133676642 0 0.007466671849706033 0 0.0075577273959307805 0
          0.0076519944278532785 0 0.007748903223578266 0 0.007847477848192142 0
          0.007947137770724285 0 0.008046585915156529 0 0.008144985337961229 0
          0.00824157070050247 0 0.008394562470470416 0 0.008456047579146541 0
          0.008330804071352527 -0.0001295902140197187 0.008270442968463613 -0.0001279538121733576 0.00796208533854255 -0.00030441691299535456
          0.007904909290584208 -0.0003006360712759228 0.00737009379196018 -0.0005669155493997738 0.0073179711511350476 -0.0005599650039459413
          0.0065877583778429435 -0.0009534326318058623 0.006542641904790366 -0.0009419545728984489 0.005620207866127514 -0.0014740994374628476
          0.004600570434536224 -0.0021740053475661028 -0.00009253129051712522 -0.0029483079106048513 -0.001375386736849791 -0.009922772431573513
          0.005218510552893141 -0.00035128369626068374 0.006822138627322478 -0.0003032903196526009 -0.0009082250292180838 -0.012432074928280391
          0.0026040361045190632 -0.002474511940291392 -0.0004314002801747338 -0.00672505766576266 0.002508445990092039 -0.0004745426051709353
          -0.0018407203332528397 -0.005909512705062072 -0.0009169011018864153 -0.011801883373512513 0.006758483227961704 0.000047379321291461475
          -0.001826925868124504 -0.0008824835009893383 0.004927742303266393 -0.001188888045986071 -0.0010815136632407853 -0.010090809076717817
          0.0009752281735063941 -0.004932688418544071 0.007505749459559998 -0.00019335776540885287 -0.0026357394745273478 -0.003416461926191496
          0.0002643634057363339 0.00005734871662339557 -0.0018342460178938967 -0.010257733243244367 0.005770625728638109 0.0005317703322595154
          0.007234429712728387 -0.00007276631387038342 -0.0005836743162241506 -0.012714447924182637 0.0005113155273712357 -0.004201905673366259
          0.002817396717947686 -0.0030304430238027886 -0.0003316198326556363 -0.007606990361686658 0.001327491834382796 -0.002466335072070433
          -0.0010996579832498487 -0.011418946409467666 0.006702303405802986 0.00037781920776017494 -0.0007560367925317737 -0.0053978114005217405
          -0.0012642531937203361 -0.0077209563374584 0.003651926097578867 -0.0009279518499573806 0.004148634055902005 0.00021855626852930183
          -0.002131823203939152 -0.008249564383697859 0.006072820278399876 -0.0007568795442372656 -0.001109366245333507 -0.01174547060737338
          0.007559365465561279 -0.0000778915053268684 -0.0011869354668089548 -0.004190361647217127 0.0008653070206257796 -0.0012168421372993148
          -0.0031447497564062368 0.0004308672714207029 -0.003033794451538081 -0.0065396252968812655 0.0028910625891463058 0.0008557594343498085
          0.007909159024563175 -0.00009096464654916907 -0.0006605292572903247 -0.0018047865402395025 -0.0011488587668169686 -0.01088596028746719
          0.005724437785306524 -0.0005899972214828363 -0.0034408591209140736 -0.001702696419449566 -0.0011536010751066977 0.0008101418266542611
          -0.0005486727294425185 -0.012082038971898398 0.0070841394546078814 0.00010799038409833884 0.004209188331328341 -0.0020248803984078355
          -0.0008942227525908059 -0.009581611723956001 -0.0011844072455811127 -0.009280759932828737 0.004554387346911207 -0.0009602159278752425
          -0.0010056923504452254 -0.011725853237381345 0.0065254292998891865 -0.0001726918658641324 0.0004882177552815615 -0.006208300495372573
          0.0016806973917634 -0.004485413184665536 0.007081995996197013 -0.0004411069412076495 -0.002717236040361186 -0.008669422969512296
          0.004587783176096694 0.00096454523660188 0.0013903656361753027 -0.0037526749035268064 0.0014195697831134834 0.0010753947436160176
          -0.0035146948315874465 -0.004696748442367954 -0.0013411407666359494 -0.010830383838895327 0.006053091658709771 0.00008274779938095103
          0.003591830866873089 -0.0020312494664507484 -0.0007639441913036239 -0.008328682674397634 -0.00042203141429987193 -0.012503670157113827
          0.007249404623364225 0.000014059166004234383 0.00033526894269578694 -0.005282640612416268 -0.0018977124346515682 -0.002352891856804799
          0.007715419619730224 -0.00006937346482316836 -0.0001994007625788357 -0.005495122631165419 0.001375505125536152 -0.0002660284555500535
          -0.0022071516659682927 -0.0046007961218773215 -0.000688750539654952 -0.0006307019665062746 0.005417211867514258 -0.0013032732600301096
          -0.0011426397898106294 -0.011235558455882914 0.002527390115184032 -0.0018960503914020202 0.0035117064309938217 -0.0016061539299208265
          -0.0009394368688131086 -0.007935717781908212 -0.0002917356443385107 -0.004358273203226743 0.00514559171347138 0.00006819057584833796
          0.004109090668841778 -0.00042916895173598116 -0.001690178960365564 -0.009622097785565456 -0.0016080191992038167 -0.008594163109352494
          -0.0018232086055573512 -0.010681301436661102 0.0062001447796233115 0.0007694333285077941 -0.0008904359059045532 -0.006608656693002581
          -0.0011617538373771192 -0.011352440755006812 0.006561214231603354 0.0002673733936457711 0.008035154548363049 -0.00006617136639717921
          -0.0003308399850240984 -0.013089357582830165 0.007471478891697746 -0.00004354276558722791 0.0016995682120323624 -0.002823112335514137
          0.0007450933404225601 -0.003070711022686133 0.001955454955289936 -0.003627718342310979 0.00770428676881967 -0.00024597032608968117
          0.007330636406151575 -0.00017501913252606242 -0.0037081212767406304 -0.0029688832507665697 -0.000021878467918469657 0.0011309570612314482
          0.0029414429118451765 -0.003284057557096364 -0.0003650954621111654 -0.008139006472554323 0.0023316379237376633 -0.0010667473937849086
          0.00006144978991750166 -0.006461057845296098 -0.0010740009363867137 -0.011696097506529115 0.00621372375107765 -0.0005474483799523511
          -0.0005872830451878561 -0.011721957462603171 0.00697151667500229 0.00022559120277132052 -0.0013345506964386965 -0.006591734657383514
          -0.003986620811610269 -0.000529440005780023 -0.0022409823012174766 0.0012891226076180472 0.0032544049920498804 -0.0005811324286370301
          -0.0008016403433128189 -0.002983722442899578 0.0006634626067506828 -0.002379966809838463 -0.001753077445705214 -0.0070874678001435565
          -0.0034223074926111726 -0.007543338772354212 0.003739785427801023 0.001393374959443569 -0.00039787087363063836 -0.011995805936299446
          0.007098821234502437 0.00011576423075156559 -0.0012790888221806413 -0.0052862970605724174 0.0032601796881983817 0.00008637645242804255
          0.007138839125632486 -0.000312676764777758 -0.00029315716787518917 -0.012814195051855761 0.007388512658834294 -0.000013248553290647394
          -0.0022326222384704674 -0.007052969047736977 0.0068698262596930135 -0.00017614944676403263 -0.0008511971847429993 -0.012290384754542808
          -0.003937292430002901 0.0012265644860380341 0.00667842625736033 -0.000699304705427393 -0.0005098276078104851 -0.003787992189608064
          0.000015320256357682003 -0.0020729660466737884 -0.0021476973990520202 0.00010097452428019147 -0.0028277155879953635 -0.0006801193739408307
          0.000024627240584841118 -0.0011012947481819563 -0.0011933574269480057 -0.010911774931094862 0.005906087900343878 -0.00030971333181547715
          -0.0008211256675493354 -0.012107980258054925 0.006884517708408437 -0.0000488803185406845 0.00531768641787615 0.0010636583954418363
          -0.0025650206574872846 -0.009554146987728593 0.0010520283735508424 -0.0055388409054532755 0.0021373994691573886 0.00007062316557012198
          -0.0011701067963788704 -0.011272569957168922 0.006692767165313102 0.0005337814580304974 -0.0004184416730698838 -0.007325104802257299
          0.0015043377983676443 -0.0015572824008177218 -0.002471011849190464 -0.0057974009385397315 0.008173252491324945 -0.00004390644679410791
          0.007688494363476966 -0.000032457999805100944 0.005382944139754791 -0.0011235682920565644 -0.0011119911762045196 -0.010892874466191005
          0.0041595189000337845 -0.001435132640022836 -0.0010059591596281662 -0.008928321450672207 0.002830141845131047 -0.0026522338390467986
          -0.0016601628591117299 -0.003548940973213431 0.003956136214052125 -0.002426636415641345 -0.0008254157324603582 -0.00952451115710354
          0.00636200657354236 -0.00035722457981167985 -0.0010434919017135189 -0.011694865656142849 0.007865058412828597 -0.000046143667162119
          -0.0005412509607959835 -0.013039800330927168 0.0073652011645540735 -0.00010280963785720768 0.00503493372456508 -0.0009249627646360839
          -0.001145395297471559 -0.0100341849580794 -0.002647562549182764 -0.007661294323381178 -0.0011168213082537572 -0.011358739396597168
          0.006364135002840052 -0.00005216184282515325 0.003758749375675878 0.0006662245857021967 0.007991327418934928 -0.000037596926914792985
          -0.0020787616798071625 -0.009270898618524839 0.004972887670447673 0.0004486078051653193 0.0036185967123430816 -0.0022732048430626275
          -0.0007099806231469904 -0.008599157150225384 0.002207482946654845 0.0013834743801360834 -0.0037251117292889397 -0.005641924942173663
          0.006679868739623499 -0.0004834660792796387 -0.0010067194514759492 -0.012496231545250485 -0.002782774576241981 -0.0023946291476842196
          0.004530860341623534 -0.0006489318756826076 0.007981827239359968 -0.00013934397494710186 -0.0013636420916017878 -0.00888036783673112
          0.005575750837477334 -0.0008426090527045541 -0.001123474158754941 -0.010905320351404596 0.00025545887008817926 -0.006888924387148083
          -0.000355684525093778 -0.012366846407506607 0.007226999388725967 0.00004174333984899587 0.005190859705968101 -0.0006141452409029657
          -0.0012457381471250538 -0.010044925207323755 -0.004331092733430241 -0.0014623774819593315 -0.0013555189615061338 0.001681402217638521
          -0.0008717588199880272 -0.011789266585520443 0.0068373260937840226 0.00014190015218568027 0.0008140474328836696 0.0015665280980366348
          -0.004112327383752836 -0.0039403598764974285 -0.0005481806074235227 0.00023294391171746432 -0.0013179957978331144 -0.0001365835636820701
          0.001971861697275087 -0.004381476278201321 0.0008821463019799583 -0.004634080735647421 0.004871018290504748 -0.0017470265242902317
          -0.0010833937597550024 -0.010696734837176243 -0.0013561371969790944 -0.0015634527112559997 0.007434345913874251 -0.00038646550146724366
          0.001037891891370847 -0.005196769226138425 -0.004172132265665859 0.00038357883735934417 -0.0031033421552407008 0.0014621268886032912
          -0.0006461573146471997 -0.012195472683757648 0.007060116364979536 0.000045275684072689834 0.00758823097131827 -0.00012310904011389792
          0.0075885177769895945 -0.00002517758377055511 -0.00016470171689431397 -0.013318251159964793 0.0017127305559835845 -0.0007822253686268402
          -0.0014730828323937905 -0.010949853427770662 0.006317787750000268 0.00046141356311312013 -0.0024027167181233026 -0.0015581728767349171
          0.002049291048448729 -0.003843925182731608 -0.00015694006956196944 -0.013061391126608429 0.007499514064102962 -0.000014696154437238684
          0.003508856441163544 -0.0025911840073131985 -0.0006405300031867673 -0.00868753338841558 0.0009901479008396843 -0.0034857321315111744
          0.004408496816270642 -0.0016351639028869803 -0.0009617820399049574 -0.009553692692765972 0.007781621502907972 -0.000029108836454993184
          -0.0007520103776667049 -0.01180599648040384 0.006937288577993009 0.0002034179034766288 -0.000037696644037343766 -0.00619463095891945
          0.00744389420362545 -0.0002836990006906039 0.0010997392844924164 0.0003425353321961108 -0.0028719834126411667 -0.004637295314033176
          0.002025743603033103 -0.003113729968768733 0.0059825245323983384 -0.0010890789522770173 -0.0012088433861687383 -0.012147448882705445
          0.0006592922674588755 -0.0005139151633557711 0.00013002209294784678 -0.006632297240342586 -0.001229096053528583 -0.002502823440726254
          -0.00027689864960902464 -0.012211922160730108 0.0071920560946701585 0.000057973799040620225 -0.000557712729004205 -0.011489873158853758
          0.006884611046685259 0.0002662712255253922 0.007739360992346332 -0.00011172281928996646 -0.0011486966027479944 -0.011337173332225314
          0.006459598082128914 0.0001241473375142852 0.0007215748532070103 -0.004378886999251615 -0.0002185618391070829 -0.012651588960992156
          0.00734949194185581 0.000006132650332838753 -0.000566154393469016 -0.012491104050343345 0.007180273620137655 -0.00001659674321425131
          -0.0014138148187563255 -0.01034128186092535 0.0056233900146036315 -0.00008031852222269319 -0.0016316797366393752 -0.004704078658909573
          -0.0031018166821718085 -0.005493393836702543 -0.00012167034385298652 -0.005836662983596273 -0.0014269559261550543 -0.010847883662661099
          0.006154983068344037 0.0002790252960856648 0.0020292020221952347 0.0007503951931261796 0.00022578651528430533 -0.004966431906265595
          -0.00011782758394086945 -0.004874040400978318 -0.001158690101239589 -0.008403104288942014 0.0032282511344617812 -0.0014744160297754506
          0.0015550749649016675 0.0017037905294803055 -0.00418105998594719 -0.004823772623769456 -0.004305631652605349 -0.0022370114581008677
          -0.0006382588997279519 0.0016517964689024393 0.0007201326319354183 0.0008337554444329624 -0.0033628658533381636 -0.003883248989849516
          0.00714812308707131 -0.0001582362555266188 -0.0007141896200016613 -0.012752743563133412 0.003952732618471805 -0.0011673458407937241
          0.00773693399924497 -0.00017052346916235302 0.0032692222649826326 -0.0020148318097209 -0.0007335457024195913 -0.007733563368938618
          -0.0010545716381648892 -0.010402945406583165 0.004879685055701058 -0.0015343458590643887 -0.0038363355178432238 -0.006481394127642015
          0.0029013891918529106 0.0015948991478148523 0.0045868051225461835 0.0014929126138412555 -0.003301087286126933 -0.008581154285625128
          -0.0008252178009122213 -0.004656863979758996 0.0028709848193834158 -0.001278326866752379 -0.0023928901823950985 -0.00847370433059632
          0.0005536406264044104 -0.005760744796207571 -0.0005077454895481276 -0.006264882308892418 0.004381805920005923 0.0005731976625388527
          0.002293102575812585 -0.0037830025276056377 0.0056457858428243775 0.0002179350947422168 -0.001621194953796495 -0.010222698320434348
          0.000016805395406069922 -0.007096353034109946 0.00033117447432146925 -0.003906405095841933 0.0028998949289536506 -0.001970888310608131
          -0.0015672836268588266 -0.009373363765102508 0.004882360019713419 -0.00022806037668987253 0.006522133429696026 -0.0006527227371115673
          -0.0010885903744523604 -0.012500122246559492 -0.0007580865398218675 -0.007129126301289525 -0.0010105732755351228 -0.007566147247373169
          0.0004976840044793662 -0.005455502722177306 0.00388674266159237 -0.00017011802434154741 0.00134733992287608 -0.004219717231179445
          0.001464311304452382 -0.004431125859650579 0.006022530286008246 -0.0009221488534904064 -0.0011496683984263379 -0.011923017168317918
          0.0023354326562811806 -0.0024288194924436623 -0.0005277560171803495 -0.005748293543239666 -0.0017960744341097691 -0.008837990890922876
          0.00015334322511471448 -0.0034181342913513013 -0.0044701546256214674 0.0017574673934124252 -0.0018333623757218708 -0.00796443579062556
          0.004537096240130817 -0.00003437632540311551 0.0020588066064502874 -0.001833598911615216 0.008085995403887165 -0.00002692483847607974
          -0.0015288390501747534 -0.007816977155971804 0 -0.013326101789180443 0 -0.013062894952473869
          0 -0.01280631067902276 0 -0.012556312625127686 0 -0.012312025054379434
          0 -0.012066672269625947 0 -0.011805741278655508 0 -0.011497240197760742
          -0.00007889311885273635 -0.013134845779641288 -0.00007831412536034662 -0.013004358025792353 -0.00008317350000214734 -0.013397161165305297
          -0.00008190777645869678 -0.013263980874275555 -0.00010860875966278138 -0.012800542362316723 -0.0001095987691201008 -0.012678340762814823
          -0.0001116624434513818 -0.012551100090176012 -0.00013440419009746194 -0.012334288024793957 -0.00014061833190064397 -0.01221436892764726
          -0.0001475690232130681 -0.012896526001036156 -0.00016042356704585166 -0.01318584327535698 -0.0002687645376630273 -0.011595840797258502
          -0.0003051524508234581 -0.01142421472633666 -0.000193543302532129 -0.01211356727792929 -0.000207011619464203 -0.011989220591249872
          -0.00017959293416521001 -0.012426128262974246 -0.00028578812463217815 -0.011863439454489429 -0.0003143210928402762 -0.011726374661638348
          -0.00022510743051454182 -0.012939495206550838 -0.0002441970449221527 -0.013083442044969315 -0.00024888012112582344 -0.013209422637706312
          -0.0005173906570201714 -0.011271094633150808 -0.0002557107703048238 -0.012732252152620471 -0.00027381123606615447 -0.013367015903322227
          -0.00028509809956287526 -0.012508156455576814 -0.0003339711085359781 -0.012103357796157527 -0.00031690021044916526 -0.012289464188212217
          -0.000310870507921541 -0.012947126699623683 -0.0003209062459627725 -0.012586429989648552 -0.0003555127751910533 -0.013234740811554215
          -0.00035636743024843124 -0.012657336562726362 -0.0005742814660344766 -0.011612198393829876 -0.00041429996272722875 -0.012159227277285271
          -0.0004850063320159462 -0.011859703114309022 -0.00038904567631307783 -0.01243522376982634 -0.0007729873980966255 -0.011329770921168224
          -0.0004764425221316704 -0.012044507826142838 -0.00044866944986050953 -0.012226041374766593 -0.00043703731835207277 -0.013077922769233587
          -0.00043146082695791295 -0.012669020058317335 -0.00044152663546926616 -0.012789491436724518 -0.0004640557451990615 -0.01321910583012675
          -0.00046022273666113876 -0.01291690523949667 -0.0005785827778777273 -0.011918893578624933 -0.0005048489953776243 -0.012300934051035876
          -0.0004951697772682635 -0.012503500451477047 -0.0008751712205168294 -0.011408809020105689 -0.0006765318315210259 -0.011774671082743621
          -0.0005339429443432638 -0.012357062954813591 -0.0006458387448038266 -0.011945291640520642 -0.0005979283174069271 -0.012142051004175246
          -0.0008578578216418642 -0.011512116734913291 -0.0005609252520530503 -0.01287217160448107 -0.0005726449393260552 -0.012599415949230574
          -0.0005983894540600551 -0.013100392214192704 -0.0011106950837319791 -0.011229445669208074 -0.0006030548307854554 -0.012339235226964989
          -0.0008559437828865689 -0.011603192847008992 -0.0006303229047264004 -0.012906268079960046 -0.0007150829210889957 -0.0119562445610371
          -0.0006486698193557522 -0.01273972252431978 -0.0006854091899755168 -0.012948896649417315 -0.0006976391173752583 -0.012317408089455976
          -0.0008149333318776735 -0.011805613080666837 -0.0007537775847092406 -0.011993068225764715 -0.0007016424929148796 -0.012414691101827427
          -0.0009171164666306245 -0.011617614549545378 -0.0015210491857603498 -0.010952699763637544 -0.0007366057282022601 -0.012165591848723631
          -0.0007247222788951453 -0.012530151848560116 -0.0011323649134101642 -0.011353863906017407 -0.0007852193416513325 -0.012015485387541434
          -0.0007936028161860746 -0.012817117478198222 -0.0007838007629701327 -0.012523614504162011 -0.0009660758650266991 -0.011608888921419511
          -0.0015433651699958146 -0.010991924527174563 -0.0008164615377057373 -0.012613515444771788 -0.0008944209885369509 -0.011799070694275611
          -0.0008325010485951471 -0.012197589784727082 -0.0008646199562664625 -0.011951185724002472 -0.0008753282794275537 -0.012748856288342852
          -0.0010116251382526812 -0.011575371323719087 -0.0011337238821452168 -0.011395245758133868 -0.0009346805303709154 -0.012809088543179567
          -0.0008769760457010937 -0.012361695937161965 -0.0015181025499023371 -0.011019104339985573 -0.0009858850319678192 -0.012871768179222708
          -0.0010174162860222117 -0.011583939214603538 -0.0009197200146062192 -0.011935825999109364 -0.0010364620591053874 -0.012899981226641401
          -0.0012946801599836156 -0.011204767233922995 -0.0009554615962461572 -0.01247007220298078 -0.0009283044722994869 -0.012008451726915715
          -0.0014387134575138865 -0.011068423000015858 -0.0010301769072339313 -0.0115732934877475 -0.0009726926054812461 -0.011749658373312547
          -0.0009573419216945225 -0.012018347042204447 -0.0010244154823546804 -0.011600527251141515 -0.0011541344148860927 -0.011348852182744647
          -0.0019069954532474473 -0.010705664294510439 -0.001107524632780402 -0.012718350262655737 -0.0010472185253738039 -0.012503628305772311
          -0.0009780203260516163 -0.012063889629971429 -0.0013084553270552104 -0.011152587517411978 -0.0010043229971568835 -0.012092074315838305
          -0.0010555835455207543 -0.01153788501953228 -0.0010413287654116267 -0.01208938340159921 -0.0011859695452812508 -0.012576043407694436
          -0.0013004401326575312 -0.011115338738350331 -0.0010232431648082277 -0.011715757972074347 -0.0011300864988905014 -0.011350969026530187
          -0.0011491274101816842 -0.012433909570957998 -0.0010698747951703072 -0.012141321394221707 -0.0016324272954990596 -0.010817516013417117
          -0.0024372754145748003 -0.010343751193725857 -0.0011270985669480735 -0.012226535769009141 -0.001100870559498201 -0.012117544968820825
          -0.0012806638733901816 -0.0110937906693619 -0.001449721364519599 -0.010905762007408152 -0.0010572628345366314 -0.011699695269537826
          -0.0012502903193332092 -0.011095859598150208 -0.0011092830890780678 -0.011337074079899007 -0.0011767003637739501 -0.012033620698139496
          -0.0010897745654491818 -0.011724472241671377 -0.0012219953752957403 -0.01109285271052203 -0.001126797787820513 -0.011833880775989503
          -0.0012352677056312754 -0.012043529148472374 -0.00227977637894089 -0.010323905337619675 -0.0011631398916517681 -0.011156522369046275
          -0.0011127220990691247 -0.011296593471264499 -0.0013813916122908953 -0.010842439933508573 -0.001662131207551054 -0.010622624054943745
          -0.0011076136678217692 -0.011308755979355638 -0.0018399141694722101 -0.010496410789177174 -0.0011798267096011826 -0.011682850428235974
          -0.0011571650698878524 -0.011596054415411006 -0.001110223859303762 -0.011285088867196175 -0.0011105003707420319 -0.011317826068432731
          -0.0012720791375868178 -0.01086830592566605 -0.0016182836742874012 -0.010555562320532603 -0.0011160366355633697 -0.011316886407248516
          -0.001134692116091435 -0.011398623410623407 -0.0011238800093085995 -0.011336264701003589 -0.001176333941710702 -0.011445217824484348
          -0.0015323179380835937 -0.010550128053477185 -0.001170745276230809 -0.011283674489780184 -0.0022110519633367176 -0.010156300877760635
          -0.001168323388820812 -0.010904904078166045 -0.0014758772237584942 -0.01052901945881883 -0.001384166388576946 -0.010598416734136031
          -0.0011226979142666918 -0.01105925229036593 -0.0011339496510425029 -0.010899651978669303 -0.0011226915659631913 -0.010982694960891458
          -0.0012889965878138754 -0.010620951284937294 -0.00111673567137693 -0.0109044845742693 -0.0017207961450415076 -0.01024589228700675
          -0.0011019083989202599 -0.010814456657973849 -0.0010769210544040897 -0.010671425899242684 -0.002708947151119049 -0.009779788908771932
          -0.0010908781383540344 -0.01066237855923822 -0.0012339242304490487 -0.01049870362173741 -0.0015087380861128696 -0.01028430286767024
          -0.0012851838247189635 -0.010420958705231357 -0.0010647969394851934 -0.01054722526294829 -0.0011943864805843158 -0.010460711497006534
          -0.0021658004636203963 -0.00991038997358777 -0.0011596985965477843 -0.010475495721451022 -0.0011133799671292984 -0.010509238145711908
          -0.001132977967898943 -0.010462660107538383 -0.001094009739929434 -0.010481020304463205 -0.0032243577708211775 -0.009494520471379286
          -0.0009439979874686664 -0.010055205053061147 -0.0009738963368978273 -0.010122442304114033 -0.00139937481516922 -0.01014272982928707
          -0.0009887281826392725 -0.010121298454008675 -0.001056066806772945 -0.010231020289308761 -0.0016631399585317168 -0.009932789091126678
          -0.001544660109488607 -0.009981897792129431 -0.0019738795021368364 -0.009788167520864982 -0.0009856926871843737 -0.01000212099802288
          -0.0011111693461075742 -0.010065314769518656 -0.0011927833855923152 -0.010044570762035913 -0.001004734214060237 -0.009966707131876439
          -0.0013052498378263813 -0.009985330100956941 -0.00184062601768229 -0.00975294659513341 -0.0014997457529271375 -0.009869639734972327
          -0.0007643799264686352 -0.00940788059496382 -0.0030173151563312552 -0.00928133058512627 -0.0010309490385458282 -0.00983695304517124
          -0.0008614527993448455 -0.009559727343548364 -0.002306086985642024 -0.009433227279307095 -0.0009270316568420209 -0.009573278780858204
          -0.0014643985526521424 -0.00964643036391432 -0.0012258008623394281 -0.009674402655351652 -0.0011619646196192996 -0.009652045597611729
          -0.0018687830008278592 -0.00944786718781112 -0.0016296314450517189 -0.009503434783314151 -0.0007294454497170226 -0.009091431098792695
          -0.0010460944460205814 -0.009501078066680498 -0.0010937616118794032 -0.009496096301550556 -0.0007792034503749225 -0.009140793604533277
          -0.0029258467600132695 -0.009075982250672986 -0.0005200025134081971 -0.008674398538027595 -0.0006159684417659336 -0.008833065682113521
          -0.0026573773888023317 -0.009129637961704583 -0.0013036384023877691 -0.009460250301859834 -0.001384289175097901 -0.009416019637716285
          -0.0008005475365964611 -0.009076737243025886 -0.0009711076404279301 -0.009232200788826769 -0.0008518581668723321 -0.009088428387529124
          -0.0034324384699169655 -0.008800922143944881 -0.001749351579489956 -0.00923658227413573 -0.0010997365409095448 -0.009117030127641288
          -0.0008664555078137926 -0.008930259828994713 -0.002372111902708237 -0.008972117994920065 -0.0005154208194805105 -0.008428957563006698
          -0.0002549276931223948 -0.008020837640744643 -0.001937575045975458 -0.009068978038854049 -0.001471093900643883 -0.009142146897356155
          -0.0006742806977547529 -0.008645868846884008 -0.0016753301856407682 -0.009105151064727719 -0.001264334568185172 -0.009079213009646864
          -0.0022352510988572385 -0.008875865214870899 -0.0015937600382737928 -0.008989130827258704 -0.0038598086753968354 -0.008465632578463155
          -0.002991074603966768 -0.008629665207344829 -0.0011745550029675566 -0.00884072073202957 0.00007112829452489079 -0.007358997972485381
          -0.0008953202964463809 -0.008643651934345367 -0.0021205790692276627 -0.008774820526991935 -0.0007322414979588932 -0.008463295909864492
          -0.00048768369063227515 -0.00813373409904464 -0.00007980632016504462 -0.007522726694140386 -0.00033911228012182334 -0.007864763583106064
          -0.0010693736521395804 -0.008662786216709439 -0.0014766906338911706 -0.008738623578839212 -0.000537539828838154 -0.008112376068230212